<?xml version="1.0" encoding="UTF-8"?>

<sumoConfiguration xmlns:xsi="http://www.w3.org/2001/XMLSchema-instance" xsi:noNamespaceSchemaLocation="http://sumo.dlr.de/xsd/sumoConfiguration.xsd">

    <input>
        <net-file value="simulation_files/map.net.xml"/>
        <route-files value="simulation_files/courier.rou.xml, simulation_files/traffic.rou.xml"/>
        <additional-files value="simulation_files/buildings.poly.xml"/>
    </input>

    <output>
        <battery-output value="output/electric.xml"/>
        <summary-output value="output/summary.xml"/>
        <tripinfo-output value="output/tripinfo.xml"/>
        <personinfo-output value="output/personinfo.xml"/>
        <vehroute-output value="output/vehroute.xml"/>
        <stop-output value="output/stopinfo.xml"/>
        <collision-output value="output/collision.xml"/>
        <edgedata-output value="output/edgeData.xml"/>
        <lanedata-output value="output/laneData.xml"/>
        <statistic-output value="output/statistic.xml"/>
    </output>

    <time>
        <begin value="0"/>
        <end value="28800"/> # 8 stundas
        <step-length value="1"/>
    </time>

    <processing>
        <time-to-teleport value="-1"/>
    </processing>

    <gui_only>
        <gui-settings-file value="static_files/view.xml"/>
    </gui_only>

</sumoConfiguration>
