<?xml version="1.0" encoding="UTF-8"?>

<!-- generated on 2025-03-31 15:04:02 by Eclipse SUMO GUI Version 1.22.0
<sumoConfiguration xmlns:xsi="http://www.w3.org/2001/XMLSchema-instance" xsi:noNamespaceSchemaLocation="http://sumo.dlr.de/xsd/sumoConfiguration.xsd">

    <input>
        <net-file value="C:\Users\blazi\Desktop\project\simulation_files/riga.net.xml"/>
        <route-files value="C:\Users\blazi\Desktop\project\simulation_files/riga.rou.xml"/>
    </input>

    <output>
        <battery-output value="C:\Users\blazi\Desktop\project\output/electric.xml"/>
        <summary-output value="C:\Users\blazi\Desktop\project\output/summary.xml"/>
        <tripinfo-output value="C:\Users\blazi\Desktop\project\output/tripinfo.xml"/>
        <personinfo-output value="C:\Users\blazi\Desktop\project\output/personinfo.xml"/>
        <vehroute-output value="C:\Users\blazi\Desktop\project\output/vehroute.xml"/>
        <stop-output value="C:\Users\blazi\Desktop\project\output/stopinfo.xml"/>
        <collision-output value="C:\Users\blazi\Desktop\project\output/collision.xml"/>
        <edgedata-output value="C:\Users\blazi\Desktop\project\output/edgeData.xml"/>
        <lanedata-output value="C:\Users\blazi\Desktop\project\output/laneData.xml"/>
        <statistic-output value="C:\Users\blazi\Desktop\project\output/statistic.xml"/>
    </output>

    <time>
        <begin value="0"/>
        <end value="1000"/>
        <step-length value="0.1"/>
    </time>

</sumoConfiguration>
-->

<tripinfos xmlns:xsi="http://www.w3.org/2001/XMLSchema-instance" xsi:noNamespaceSchemaLocation="http://sumo.dlr.de/xsd/tripinfo_file.xsd">
    <tripinfo id="39" depart="39.00" departLane="-426310649#3_0" departPos="5.10" departSpeed="0.00" departDelay="0.00" arrival="215.40" arrivalLane="-384817904#5_0" arrivalPos="43.99" arrivalSpeed="13.42" duration="176.40" routeLength="1677.68" waitingTime="44.60" waitingCount="2" stopTime="0.00" timeLoss="60.23" rerouteNo="0" devices="vehroute_39 tripinfo_39" vType="myCar" speedFactor="0.97" vaporized=""/>
    <tripinfo id="3" depart="3.00" departLane="5737373#9_0" departPos="5.10" departSpeed="0.00" departDelay="0.00" arrival="224.80" arrivalLane="-1354366984#0_0" arrivalPos="26.19" arrivalSpeed="8.95" duration="221.80" routeLength="1023.50" waitingTime="0.00" waitingCount="0" stopTime="0.00" timeLoss="7.59" rerouteNo="0" devices="vehroute_3 tripinfo_3" vType="myCar" speedFactor="1.08" vaporized=""/>
    <tripinfo id="160" depart="160.00" departLane="50914138#2_0" departPos="5.10" departSpeed="0.00" departDelay="0.00" arrival="264.80" arrivalLane="90460173#0_0" arrivalPos="11.65" arrivalSpeed="3.20" duration="104.80" routeLength="964.88" waitingTime="0.00" waitingCount="0" stopTime="0.00" timeLoss="13.31" rerouteNo="0" devices="vehroute_160 tripinfo_160" vType="myCar" speedFactor="1.18" vaporized=""/>
    <tripinfo id="24" depart="24.00" departLane="203411557#3_0" departPos="5.10" departSpeed="0.00" departDelay="0.00" arrival="303.80" arrivalLane="-641956030_0" arrivalPos="0.20" arrivalSpeed="12.27" duration="279.80" routeLength="3122.50" waitingTime="0.00" waitingCount="0" stopTime="0.00" timeLoss="9.66" rerouteNo="0" devices="vehroute_24 tripinfo_24" vType="myCar" speedFactor="0.89" vaporized=""/>
    <tripinfo id="28" depart="28.00" departLane="-23076941#2_0" departPos="5.10" departSpeed="0.00" departDelay="0.00" arrival="311.20" arrivalLane="35064833#7_0" arrivalPos="174.39" arrivalSpeed="12.72" duration="283.20" routeLength="3873.73" waitingTime="0.00" waitingCount="0" stopTime="0.00" timeLoss="16.28" rerouteNo="0" devices="vehroute_28 tripinfo_28" vType="myCar" speedFactor="0.92" vaporized=""/>
    <tripinfo id="8" depart="8.00" departLane="-327117256#6_0" departPos="5.10" departSpeed="0.00" departDelay="0.00" arrival="315.70" arrivalLane="158305146_0" arrivalPos="35.69" arrivalSpeed="2.37" duration="307.70" routeLength="1703.16" waitingTime="25.30" waitingCount="2" stopTime="0.00" timeLoss="39.64" rerouteNo="0" devices="vehroute_8 tripinfo_8" vType="myCar" speedFactor="0.89" vaporized=""/>
    <tripinfo id="68" depart="68.00" departLane="-129146514#8_0" departPos="5.10" departSpeed="0.00" departDelay="0.00" arrival="321.30" arrivalLane="38690333#2_0" arrivalPos="9.95" arrivalSpeed="7.31" duration="253.30" routeLength="2946.06" waitingTime="11.00" waitingCount="2" stopTime="0.00" timeLoss="30.57" rerouteNo="0" devices="vehroute_68 tripinfo_68" vType="myCar" speedFactor="0.88" vaporized=""/>
    <tripinfo id="161" depart="161.00" departLane="4498161#1_0" departPos="5.10" departSpeed="0.00" departDelay="0.00" arrival="327.00" arrivalLane="545902242#6_0" arrivalPos="0.42" arrivalSpeed="14.98" duration="166.00" routeLength="1779.93" waitingTime="0.00" waitingCount="0" stopTime="0.00" timeLoss="15.04" rerouteNo="0" devices="vehroute_161 tripinfo_161" vType="myCar" speedFactor="1.08" vaporized=""/>
    <tripinfo id="176" depart="176.00" departLane="791299201#2_0" departPos="3.64" departSpeed="0.00" departDelay="0.00" arrival="333.50" arrivalLane="-160160383#2_0" arrivalPos="58.55" arrivalSpeed="2.43" duration="157.50" routeLength="1114.03" waitingTime="6.90" waitingCount="1" stopTime="0.00" timeLoss="17.37" rerouteNo="0" devices="vehroute_176 tripinfo_176" vType="myCar" speedFactor="0.89" vaporized=""/>
    <tripinfo id="137" depart="137.00" departLane="-174569582#11_0" departPos="5.10" departSpeed="0.00" departDelay="0.00" arrival="343.10" arrivalLane="-160160384#3_0" arrivalPos="13.93" arrivalSpeed="14.35" duration="206.10" routeLength="3198.51" waitingTime="0.00" waitingCount="0" stopTime="0.00" timeLoss="10.74" rerouteNo="0" devices="vehroute_137 tripinfo_137" vType="myCar" speedFactor="1.04" vaporized=""/>
    <tripinfo id="136" depart="136.00" departLane="23163175#4_0" departPos="5.10" departSpeed="0.00" departDelay="0.00" arrival="361.90" arrivalLane="794753773#0_0" arrivalPos="75.65" arrivalSpeed="7.92" duration="225.90" routeLength="2689.73" waitingTime="2.30" waitingCount="1" stopTime="0.00" timeLoss="16.14" rerouteNo="0" devices="vehroute_136 tripinfo_136" vType="myCar" speedFactor="0.96" vaporized=""/>
    <tripinfo id="73" depart="73.00" departLane="129146494#3_0" departPos="5.10" departSpeed="0.00" departDelay="0.00" arrival="371.90" arrivalLane="35332798#0_0" arrivalPos="58.50" arrivalSpeed="8.51" duration="298.90" routeLength="3703.65" waitingTime="23.50" waitingCount="3" stopTime="0.00" timeLoss="49.27" rerouteNo="0" devices="vehroute_73 tripinfo_73" vType="myCar" speedFactor="1.02" vaporized=""/>
    <tripinfo id="133" depart="133.00" departLane="172131004_0" departPos="5.10" departSpeed="0.00" departDelay="0.00" arrival="377.00" arrivalLane="945443747#1_0" arrivalPos="56.00" arrivalSpeed="13.88" duration="244.00" routeLength="3804.33" waitingTime="0.00" waitingCount="0" stopTime="0.00" timeLoss="12.54" rerouteNo="0" devices="vehroute_133 tripinfo_133" vType="myCar" speedFactor="1.01" vaporized=""/>
    <tripinfo id="92" depart="92.00" departLane="-7979633#1_0" departPos="5.10" departSpeed="0.00" departDelay="0.00" arrival="402.40" arrivalLane="-53448134#2_0" arrivalPos="100.82" arrivalSpeed="13.90" duration="310.40" routeLength="3895.71" waitingTime="12.30" waitingCount="2" stopTime="0.00" timeLoss="37.86" rerouteNo="0" devices="vehroute_92 tripinfo_92" vType="myCar" speedFactor="1.01" vaporized=""/>
    <tripinfo id="301" depart="301.00" departLane="114553685#5_0" departPos="5.10" departSpeed="0.00" departDelay="0.00" arrival="427.50" arrivalLane="38330910#0_1" arrivalPos="105.79" arrivalSpeed="13.42" duration="126.50" routeLength="1259.96" waitingTime="21.40" waitingCount="1" stopTime="0.00" timeLoss="30.87" rerouteNo="0" devices="vehroute_301 tripinfo_301" vType="myCar" speedFactor="0.97" vaporized=""/>
    <tripinfo id="204" depart="204.00" departLane="20007871#7_0" departPos="5.10" departSpeed="0.00" departDelay="0.00" arrival="446.20" arrivalLane="-521375863#22_0" arrivalPos="4.08" arrivalSpeed="2.25" duration="242.20" routeLength="866.20" waitingTime="0.00" waitingCount="0" stopTime="0.00" timeLoss="7.20" rerouteNo="0" devices="vehroute_204 tripinfo_204" vType="myCar" speedFactor="0.83" vaporized=""/>
    <tripinfo id="48" depart="48.00" departLane="983720635#0_0" departPos="5.10" departSpeed="0.00" departDelay="0.00" arrival="458.60" arrivalLane="1286572564_0" arrivalPos="8.59" arrivalSpeed="8.97" duration="410.60" routeLength="5615.32" waitingTime="21.20" waitingCount="3" stopTime="0.00" timeLoss="55.41" rerouteNo="0" devices="vehroute_48 tripinfo_48" vType="myCar" speedFactor="1.09" vaporized=""/>
    <tripinfo id="254" depart="254.00" departLane="-1219477077#0_0" departPos="5.10" departSpeed="0.00" departDelay="0.00" arrival="460.60" arrivalLane="-72408254#2_0" arrivalPos="6.34" arrivalSpeed="2.86" duration="206.60" routeLength="3012.16" waitingTime="14.60" waitingCount="2" stopTime="0.00" timeLoss="46.48" rerouteNo="0" devices="vehroute_254 tripinfo_254" vType="myCar" speedFactor="1.04" vaporized=""/>
    <tripinfo id="71" depart="71.00" departLane="-42687406#1_0" departPos="5.10" departSpeed="0.00" departDelay="0.00" arrival="465.40" arrivalLane="522866708_0" arrivalPos="77.55" arrivalSpeed="14.42" duration="394.40" routeLength="4957.91" waitingTime="20.90" waitingCount="7" stopTime="0.00" timeLoss="79.76" rerouteNo="0" devices="vehroute_71 tripinfo_71" vType="myCar" speedFactor="1.04" vaporized=""/>
    <tripinfo id="91" depart="91.00" departLane="93590062#9_0" departPos="5.10" departSpeed="0.00" departDelay="0.00" arrival="466.90" arrivalLane="-145656967#19_0" arrivalPos="116.70" arrivalSpeed="14.42" duration="375.90" routeLength="5020.25" waitingTime="14.80" waitingCount="1" stopTime="0.00" timeLoss="40.84" rerouteNo="0" devices="vehroute_91 tripinfo_91" vType="myCar" speedFactor="1.04" vaporized=""/>
    <tripinfo id="64" depart="64.00" departLane="535245139#4_0" departPos="0.27" departSpeed="0.00" departDelay="0.00" arrival="480.30" arrivalLane="479850150#4_0" arrivalPos="0.20" arrivalSpeed="3.09" duration="416.30" routeLength="5498.39" waitingTime="21.10" waitingCount="3" stopTime="0.00" timeLoss="48.84" rerouteNo="0" devices="vehroute_64 tripinfo_64" vType="myCar" speedFactor="1.12" vaporized=""/>
    <tripinfo id="198" depart="198.00" departLane="-896640823#4_0" departPos="5.10" departSpeed="0.00" departDelay="0.00" arrival="484.50" arrivalLane="152598682_0" arrivalPos="274.63" arrivalSpeed="20.65" duration="286.50" routeLength="3460.06" waitingTime="10.60" waitingCount="3" stopTime="0.00" timeLoss="35.98" rerouteNo="0" devices="vehroute_198 tripinfo_198" vType="myCar" speedFactor="1.07" vaporized=""/>
    <tripinfo id="59" depart="59.00" departLane="169620080#7_0" departPos="5.10" departSpeed="0.00" departDelay="0.00" arrival="500.50" arrivalLane="-213579976#0_0" arrivalPos="20.17" arrivalSpeed="4.92" duration="441.50" routeLength="4753.94" waitingTime="16.70" waitingCount="3" stopTime="0.00" timeLoss="39.43" rerouteNo="0" devices="vehroute_59 tripinfo_59" vType="myCar" speedFactor="0.90" vaporized=""/>
    <tripinfo id="57" depart="57.00" departLane="670071002#0_0" departPos="5.10" departSpeed="0.00" departDelay="0.00" arrival="501.30" arrivalLane="521375863#19_0" arrivalPos="9.32" arrivalSpeed="2.70" duration="444.30" routeLength="4995.36" waitingTime="13.80" waitingCount="3" stopTime="0.00" timeLoss="40.26" rerouteNo="0" devices="vehroute_57 tripinfo_57" vType="myCar" speedFactor="1.00" vaporized=""/>
    <tripinfo id="267" depart="267.00" departLane="26747992#0_0" departPos="5.10" departSpeed="0.00" departDelay="0.00" arrival="518.70" arrivalLane="39896067#3_0" arrivalPos="56.18" arrivalSpeed="11.49" duration="251.70" routeLength="2229.82" waitingTime="7.20" waitingCount="2" stopTime="0.00" timeLoss="22.65" rerouteNo="0" devices="vehroute_267 tripinfo_267" vType="myCar" speedFactor="0.84" vaporized=""/>
    <tripinfo id="394" depart="394.00" departLane="1323774545#3_0" departPos="5.10" departSpeed="0.00" departDelay="0.00" arrival="522.70" arrivalLane="-74131287#5_0" arrivalPos="0.20" arrivalSpeed="6.94" duration="128.70" routeLength="950.26" waitingTime="0.00" waitingCount="0" stopTime="0.00" timeLoss="9.50" rerouteNo="0" devices="vehroute_394 tripinfo_394" vType="myCar" speedFactor="0.84" vaporized=""/>
    <tripinfo id="169" depart="169.00" departLane="103917888#4_0" departPos="5.10" departSpeed="0.00" departDelay="0.00" arrival="524.10" arrivalLane="-4849967#1_0" arrivalPos="50.04" arrivalSpeed="7.53" duration="355.10" routeLength="3162.11" waitingTime="33.20" waitingCount="5" stopTime="0.00" timeLoss="59.70" rerouteNo="0" devices="vehroute_169 tripinfo_169" vType="myCar" speedFactor="0.91" vaporized=""/>
    <tripinfo id="371" depart="371.00" departLane="-50220085#1_0" departPos="5.10" departSpeed="0.00" departDelay="0.00" arrival="530.70" arrivalLane="26747997#0_0" arrivalPos="84.88" arrivalSpeed="2.93" duration="159.70" routeLength="926.92" waitingTime="3.50" waitingCount="1" stopTime="0.00" timeLoss="15.00" rerouteNo="0" devices="vehroute_371 tripinfo_371" vType="myCar" speedFactor="1.08" vaporized=""/>
    <tripinfo id="110" depart="110.00" departLane="875579072_0" departPos="5.10" departSpeed="0.00" departDelay="0.00" arrival="532.60" arrivalLane="151676218#1_0" arrivalPos="108.81" arrivalSpeed="2.75" duration="422.60" routeLength="4040.82" waitingTime="19.40" waitingCount="5" stopTime="0.00" timeLoss="59.32" rerouteNo="0" devices="vehroute_110 tripinfo_110" vType="myCar" speedFactor="1.01" vaporized=""/>
    <tripinfo id="127" depart="127.00" departLane="990945169_0" departPos="5.10" departSpeed="0.00" departDelay="0.00" arrival="537.30" arrivalLane="983030773#0_0" arrivalPos="111.62" arrivalSpeed="2.76" duration="410.30" routeLength="3998.29" waitingTime="2.00" waitingCount="1" stopTime="0.00" timeLoss="18.27" rerouteNo="0" devices="vehroute_127 tripinfo_127" vType="myCar" speedFactor="1.02" vaporized=""/>
    <tripinfo id="98" depart="98.00" departLane="131759717#0_0" departPos="1.57" departSpeed="0.00" departDelay="0.00" arrival="537.40" arrivalLane="-1222735177#4_1" arrivalPos="76.85" arrivalSpeed="15.08" duration="439.40" routeLength="6233.91" waitingTime="11.50" waitingCount="4" stopTime="0.00" timeLoss="55.16" rerouteNo="0" devices="vehroute_98 tripinfo_98" vType="myCar" speedFactor="1.09" vaporized=""/>
    <tripinfo id="310" depart="310.00" departLane="-38705332#16_0" departPos="5.10" departSpeed="0.00" departDelay="0.00" arrival="549.70" arrivalLane="-163763750#23_0" arrivalPos="22.99" arrivalSpeed="3.21" duration="239.70" routeLength="1417.11" waitingTime="1.70" waitingCount="1" stopTime="0.00" timeLoss="20.54" rerouteNo="0" devices="vehroute_310 tripinfo_310" vType="myCar" speedFactor="1.16" vaporized=""/>
    <tripinfo id="377" depart="377.00" departLane="946158271#0_0" departPos="5.10" departSpeed="0.00" departDelay="0.00" arrival="550.50" arrivalLane="23204987#3_0" arrivalPos="83.72" arrivalSpeed="13.72" duration="173.50" routeLength="1992.23" waitingTime="8.50" waitingCount="1" stopTime="0.00" timeLoss="18.04" rerouteNo="0" devices="vehroute_377 tripinfo_377" vType="myCar" speedFactor="0.99" vaporized=""/>
    <tripinfo id="49" depart="49.00" departLane="88373645#0_0" departPos="5.10" departSpeed="0.00" departDelay="0.00" arrival="555.80" arrivalLane="5086307#0_0" arrivalPos="0.74" arrivalSpeed="7.42" duration="506.80" routeLength="6256.09" waitingTime="16.00" waitingCount="2" stopTime="0.00" timeLoss="55.29" rerouteNo="0" devices="vehroute_49 tripinfo_49" vType="myCar" speedFactor="1.00" vaporized=""/>
    <tripinfo id="165" depart="165.00" departLane="4498161#0_0" departPos="5.10" departSpeed="0.00" departDelay="0.00" arrival="560.20" arrivalLane="-4377401#4_0" arrivalPos="52.35" arrivalSpeed="11.88" duration="395.20" routeLength="4914.24" waitingTime="4.00" waitingCount="2" stopTime="0.00" timeLoss="30.80" rerouteNo="0" devices="vehroute_165 tripinfo_165" vType="myCar" speedFactor="1.08" vaporized=""/>
    <tripinfo id="197" depart="197.00" departLane="-100290026#1_0" departPos="5.10" departSpeed="0.00" departDelay="0.00" arrival="560.40" arrivalLane="-4539840#2_0" arrivalPos="51.62" arrivalSpeed="15.14" duration="363.40" routeLength="4602.68" waitingTime="4.50" waitingCount="1" stopTime="0.00" timeLoss="20.27" rerouteNo="0" devices="vehroute_197 tripinfo_197" vType="myCar" speedFactor="1.10" vaporized=""/>
    <tripinfo id="295" depart="295.00" departLane="495435095#0_0" departPos="5.10" departSpeed="0.00" departDelay="0.00" arrival="568.00" arrivalLane="-23909868#1_0" arrivalPos="134.07" arrivalSpeed="14.41" duration="273.00" routeLength="1967.45" waitingTime="29.40" waitingCount="7" stopTime="0.00" timeLoss="59.69" rerouteNo="0" devices="vehroute_295 tripinfo_295" vType="myCar" speedFactor="1.04" vaporized=""/>
    <tripinfo id="216" depart="216.00" departLane="-23373336#4_0" departPos="4.26" departSpeed="0.00" departDelay="0.00" arrival="568.30" arrivalLane="84130080#3_0" arrivalPos="23.04" arrivalSpeed="6.14" duration="352.30" routeLength="4560.93" waitingTime="13.10" waitingCount="3" stopTime="0.00" timeLoss="46.02" rerouteNo="0" devices="vehroute_216 tripinfo_216" vType="myCar" speedFactor="1.10" vaporized=""/>
    <tripinfo id="221" depart="221.00" departLane="157821006#0_0" departPos="5.10" departSpeed="0.00" departDelay="0.00" arrival="568.50" arrivalLane="809601526#3_0" arrivalPos="39.96" arrivalSpeed="9.04" duration="347.50" routeLength="2749.80" waitingTime="18.80" waitingCount="2" stopTime="0.00" timeLoss="45.31" rerouteNo="0" devices="vehroute_221 tripinfo_221" vType="myCar" speedFactor="1.09" vaporized=""/>
    <tripinfo id="82" depart="82.00" departLane="5016533#10_0" departPos="5.10" departSpeed="0.00" departDelay="0.00" arrival="569.40" arrivalLane="-1300894383_0" arrivalPos="289.53" arrivalSpeed="13.93" duration="487.40" routeLength="5955.14" waitingTime="27.20" waitingCount="5" stopTime="0.00" timeLoss="74.56" rerouteNo="0" devices="vehroute_82 tripinfo_82" vType="myCar" speedFactor="1.01" vaporized=""/>
    <tripinfo id="299" depart="299.00" departLane="-1059036061#1_0" departPos="5.10" departSpeed="0.00" departDelay="0.00" arrival="574.10" arrivalLane="808198453#0_1" arrivalPos="10.77" arrivalSpeed="16.47" duration="275.10" routeLength="3774.25" waitingTime="15.50" waitingCount="4" stopTime="0.00" timeLoss="52.62" rerouteNo="0" devices="vehroute_299 tripinfo_299" vType="myCar" speedFactor="1.19" vaporized=""/>
    <tripinfo id="225" depart="225.00" departLane="60157719#0_0" departPos="5.10" departSpeed="0.00" departDelay="0.00" arrival="574.30" arrivalLane="370700008#0_0" arrivalPos="3.84" arrivalSpeed="2.52" duration="349.30" routeLength="2979.30" waitingTime="8.20" waitingCount="1" stopTime="0.00" timeLoss="26.07" rerouteNo="0" devices="vehroute_225 tripinfo_225" vType="myCar" speedFactor="0.91" vaporized=""/>
    <tripinfo id="122" depart="122.00" departLane="-27653902#14_0" departPos="5.10" departSpeed="0.00" departDelay="0.00" arrival="593.20" arrivalLane="313029615_0" arrivalPos="30.18" arrivalSpeed="8.13" duration="471.20" routeLength="5712.95" waitingTime="4.10" waitingCount="1" stopTime="0.00" timeLoss="29.06" rerouteNo="0" devices="vehroute_122 tripinfo_122" vType="myCar" speedFactor="0.99" vaporized=""/>
    <tripinfo id="86" depart="86.00" departLane="1093414185#3_0" departPos="5.10" departSpeed="0.00" departDelay="0.00" arrival="594.90" arrivalLane="4372673#4_0" arrivalPos="22.84" arrivalSpeed="14.06" duration="508.90" routeLength="6413.46" waitingTime="22.20" waitingCount="4" stopTime="0.00" timeLoss="57.51" rerouteNo="0" devices="vehroute_86 tripinfo_86" vType="myCar" speedFactor="1.02" vaporized=""/>
    <tripinfo id="70" depart="70.00" departLane="1105364754#7_0" departPos="5.10" departSpeed="0.00" departDelay="0.00" arrival="599.90" arrivalLane="133683910#6_0" arrivalPos="77.17" arrivalSpeed="2.46" duration="529.90" routeLength="5197.70" waitingTime="26.80" waitingCount="2" stopTime="0.00" timeLoss="44.98" rerouteNo="0" devices="vehroute_70 tripinfo_70" vType="myCar" speedFactor="0.91" vaporized=""/>
    <tripinfo id="26" depart="26.00" departLane="-43589068#6_0" departPos="5.10" departSpeed="0.00" departDelay="0.00" arrival="604.60" arrivalLane="790296474#8_0" arrivalPos="13.36" arrivalSpeed="6.86" duration="578.60" routeLength="5470.49" waitingTime="11.90" waitingCount="6" stopTime="0.00" timeLoss="43.20" rerouteNo="0" devices="vehroute_26 tripinfo_26" vType="myCar" speedFactor="0.83" vaporized=""/>
    <tripinfo id="232" depart="232.10" departLane="129146513#0_0" departPos="5.10" departSpeed="0.00" departDelay="0.10" arrival="606.10" arrivalLane="-188466306#3_0" arrivalPos="31.20" arrivalSpeed="17.15" duration="374.00" routeLength="6407.03" waitingTime="23.10" waitingCount="4" stopTime="0.00" timeLoss="66.59" rerouteNo="0" devices="vehroute_232 tripinfo_232" vType="myCar" speedFactor="1.24" vaporized=""/>
    <tripinfo id="43" depart="43.00" departLane="98843823#3_0" departPos="0.20" departSpeed="0.00" departDelay="0.00" arrival="608.40" arrivalLane="1231227843#8_0" arrivalPos="124.48" arrivalSpeed="2.74" duration="565.40" routeLength="6740.65" waitingTime="16.10" waitingCount="5" stopTime="0.00" timeLoss="59.50" rerouteNo="0" devices="vehroute_43 tripinfo_43" vType="myCar" speedFactor="1.03" vaporized=""/>
    <tripinfo id="1" depart="1.00" departLane="-43967198#19_0" departPos="5.10" departSpeed="0.00" departDelay="0.00" arrival="612.90" arrivalLane="-346330529#0_0" arrivalPos="1.46" arrivalSpeed="12.94" duration="611.90" routeLength="6968.47" waitingTime="35.30" waitingCount="6" stopTime="0.00" timeLoss="72.69" rerouteNo="0" devices="vehroute_1 tripinfo_1" vType="myCar" speedFactor="0.94" vaporized=""/>
    <tripinfo id="507" depart="507.00" departLane="4370484#3_0" departPos="5.10" departSpeed="0.00" departDelay="0.00" arrival="614.90" arrivalLane="-37971774#3_0" arrivalPos="57.29" arrivalSpeed="15.04" duration="107.90" routeLength="1274.13" waitingTime="1.10" waitingCount="1" stopTime="0.00" timeLoss="9.36" rerouteNo="0" devices="vehroute_507 tripinfo_507" vType="myCar" speedFactor="1.09" vaporized=""/>
    <tripinfo id="138" depart="138.00" departLane="-153130830#1_0" departPos="5.10" departSpeed="0.00" departDelay="0.00" arrival="617.50" arrivalLane="1339806284#0_0" arrivalPos="5.04" arrivalSpeed="3.38" duration="479.50" routeLength="7683.95" waitingTime="31.30" waitingCount="3" stopTime="0.00" timeLoss="82.95" rerouteNo="0" devices="vehroute_138 tripinfo_138" vType="myCar" speedFactor="1.23" vaporized=""/>
    <tripinfo id="248" depart="248.00" departLane="-800459702#0_0" departPos="5.10" departSpeed="0.00" departDelay="0.00" arrival="625.80" arrivalLane="-223782901#2_0" arrivalPos="62.21" arrivalSpeed="13.94" duration="377.80" routeLength="4658.98" waitingTime="0.00" waitingCount="0" stopTime="0.00" timeLoss="21.63" rerouteNo="0" devices="vehroute_248 tripinfo_248" vType="myCar" speedFactor="1.01" vaporized=""/>
    <tripinfo id="171" depart="171.00" departLane="-1126047106#1_0" departPos="5.10" departSpeed="0.00" departDelay="0.00" arrival="626.80" arrivalLane="-25728413_0" arrivalPos="213.07" arrivalSpeed="5.66" duration="455.80" routeLength="5219.74" waitingTime="13.90" waitingCount="2" stopTime="0.00" timeLoss="38.12" rerouteNo="0" devices="vehroute_171 tripinfo_171" vType="myCar" speedFactor="1.03" vaporized=""/>
    <tripinfo id="181" depart="181.00" departLane="166625242#4_0" departPos="5.10" departSpeed="0.00" departDelay="0.00" arrival="627.20" arrivalLane="1233490217#0_0" arrivalPos="432.92" arrivalSpeed="19.96" duration="446.20" routeLength="5585.60" waitingTime="28.40" waitingCount="5" stopTime="0.00" timeLoss="76.53" rerouteNo="0" devices="vehroute_181 tripinfo_181" vType="myCar" speedFactor="1.03" vaporized=""/>
    <tripinfo id="287" depart="287.00" departLane="-4375001#1_0" departPos="5.10" departSpeed="0.00" departDelay="0.00" arrival="636.60" arrivalLane="4498228#9_0" arrivalPos="54.88" arrivalSpeed="13.71" duration="349.60" routeLength="4432.03" waitingTime="10.30" waitingCount="2" stopTime="0.00" timeLoss="35.36" rerouteNo="0" devices="vehroute_287 tripinfo_287" vType="myCar" speedFactor="0.99" vaporized=""/>
    <tripinfo id="214" depart="214.00" departLane="374813579#2_0" departPos="5.10" departSpeed="0.00" departDelay="0.00" arrival="644.80" arrivalLane="40707724#0_0" arrivalPos="23.59" arrivalSpeed="13.33" duration="430.80" routeLength="6255.99" waitingTime="0.00" waitingCount="0" stopTime="0.00" timeLoss="11.39" rerouteNo="0" devices="vehroute_214 tripinfo_214" vType="myCar" speedFactor="0.96" vaporized=""/>
    <tripinfo id="159" depart="159.00" departLane="-211923893#2_0" departPos="5.10" departSpeed="0.00" departDelay="0.00" arrival="645.50" arrivalLane="758688394#1_0" arrivalPos="401.68" arrivalSpeed="28.01" duration="486.50" routeLength="6581.44" waitingTime="2.60" waitingCount="2" stopTime="0.00" timeLoss="29.19" rerouteNo="0" devices="vehroute_159 tripinfo_159" vType="myCar" speedFactor="1.12" vaporized=""/>
    <tripinfo id="268" depart="268.00" departLane="-22888743#2_0" departPos="5.10" departSpeed="0.00" departDelay="0.00" arrival="647.10" arrivalLane="172649782#0_0" arrivalPos="38.16" arrivalSpeed="10.38" duration="379.10" routeLength="4220.39" waitingTime="13.70" waitingCount="1" stopTime="0.00" timeLoss="27.86" rerouteNo="0" devices="vehroute_268 tripinfo_268" vType="myCar" speedFactor="0.75" vaporized=""/>
    <tripinfo id="37" depart="37.00" departLane="222473687#1_0" departPos="5.10" departSpeed="0.00" departDelay="0.00" arrival="650.30" arrivalLane="-7979400#2_0" arrivalPos="53.98" arrivalSpeed="5.41" duration="613.30" routeLength="8407.24" waitingTime="9.30" waitingCount="2" stopTime="0.00" timeLoss="52.87" rerouteNo="0" devices="vehroute_37 tripinfo_37" vType="myCar" speedFactor="0.99" vaporized=""/>
    <tripinfo id="15" depart="15.00" departLane="4472933#11_0" departPos="5.10" departSpeed="0.00" departDelay="0.00" arrival="652.00" arrivalLane="353054885_0" arrivalPos="57.02" arrivalSpeed="2.63" duration="637.00" routeLength="6909.14" waitingTime="4.40" waitingCount="1" stopTime="0.00" timeLoss="28.35" rerouteNo="0" devices="vehroute_15 tripinfo_15" vType="myCar" speedFactor="0.99" vaporized=""/>
    <tripinfo id="123" depart="123.00" departLane="-36965022#25_0" departPos="0.20" departSpeed="0.00" departDelay="0.00" arrival="652.80" arrivalLane="-7979403#3_0" arrivalPos="39.91" arrivalSpeed="5.85" duration="529.80" routeLength="8239.63" waitingTime="0.00" waitingCount="0" stopTime="0.00" timeLoss="42.79" rerouteNo="0" devices="vehroute_123 tripinfo_123" vType="myCar" speedFactor="1.07" vaporized=""/>
    <tripinfo id="395" depart="395.00" departLane="722951114#4_0" departPos="5.10" departSpeed="0.00" departDelay="0.00" arrival="656.00" arrivalLane="122479040#3_0" arrivalPos="120.13" arrivalSpeed="11.80" duration="261.00" routeLength="2160.40" waitingTime="20.80" waitingCount="6" stopTime="0.00" timeLoss="48.67" rerouteNo="0" devices="vehroute_395 tripinfo_395" vType="myCar" speedFactor="0.85" vaporized=""/>
    <tripinfo id="23" depart="23.00" departLane="-146892743_0" departPos="5.10" departSpeed="0.00" departDelay="0.00" arrival="658.00" arrivalLane="-4463355#5_0" arrivalPos="30.33" arrivalSpeed="5.32" duration="635.00" routeLength="8505.50" waitingTime="30.60" waitingCount="2" stopTime="0.00" timeLoss="61.55" rerouteNo="0" devices="vehroute_23 tripinfo_23" vType="myCar" speedFactor="0.97" vaporized=""/>
    <tripinfo id="355" depart="355.00" departLane="24708713#6_0" departPos="2.91" departSpeed="0.00" departDelay="0.00" arrival="666.00" arrivalLane="277166723#13_0" arrivalPos="24.72" arrivalSpeed="2.74" duration="311.00" routeLength="842.49" waitingTime="0.00" waitingCount="0" stopTime="0.00" timeLoss="7.73" rerouteNo="0" devices="vehroute_355 tripinfo_355" vType="myCar" speedFactor="1.00" vaporized=""/>
    <tripinfo id="474" depart="474.00" departLane="86484369#5_0" departPos="5.10" departSpeed="0.00" departDelay="0.00" arrival="666.30" arrivalLane="50831849_0" arrivalPos="78.32" arrivalSpeed="12.24" duration="192.30" routeLength="2586.22" waitingTime="0.00" waitingCount="0" stopTime="0.00" timeLoss="17.87" rerouteNo="0" devices="vehroute_474 tripinfo_474" vType="myCar" speedFactor="0.89" vaporized=""/>
    <tripinfo id="134" depart="134.00" departLane="220569925#0_0" departPos="5.10" departSpeed="0.00" departDelay="0.00" arrival="669.90" arrivalLane="-1041917997_0" arrivalPos="35.09" arrivalSpeed="2.83" duration="535.90" routeLength="5641.28" waitingTime="16.40" waitingCount="2" stopTime="0.00" timeLoss="66.48" rerouteNo="0" devices="vehroute_134 tripinfo_134" vType="myCar" speedFactor="1.03" vaporized=""/>
    <tripinfo id="132" depart="132.00" departLane="478845010#0_0" departPos="5.10" departSpeed="0.00" departDelay="0.00" arrival="678.60" arrivalLane="28145750_0" arrivalPos="11.66" arrivalSpeed="6.11" duration="546.60" routeLength="7643.98" waitingTime="30.40" waitingCount="3" stopTime="0.00" timeLoss="65.09" rerouteNo="0" devices="vehroute_132 tripinfo_132" vType="myCar" speedFactor="1.12" vaporized=""/>
    <tripinfo id="116" depart="116.00" departLane="157811767#0_0" departPos="5.10" departSpeed="0.00" departDelay="0.00" arrival="678.90" arrivalLane="240657399#2_2" arrivalPos="74.29" arrivalSpeed="15.17" duration="562.90" routeLength="9287.50" waitingTime="18.00" waitingCount="2" stopTime="0.00" timeLoss="54.41" rerouteNo="0" devices="vehroute_116 tripinfo_116" vType="myCar" speedFactor="1.10" vaporized=""/>
    <tripinfo id="286" depart="286.00" departLane="34927157#0_0" departPos="5.10" departSpeed="0.00" departDelay="0.00" arrival="679.70" arrivalLane="865691527#1_0" arrivalPos="38.84" arrivalSpeed="15.02" duration="393.70" routeLength="6325.81" waitingTime="0.00" waitingCount="0" stopTime="0.00" timeLoss="31.87" rerouteNo="0" devices="vehroute_286 tripinfo_286" vType="myCar" speedFactor="1.21" vaporized=""/>