<?xml version="1.0" encoding="UTF-8"?>

<!-- generated on 2025-03-31 15:04:02 by Eclipse SUMO GUI Version 1.22.0
<sumoConfiguration xmlns:xsi="http://www.w3.org/2001/XMLSchema-instance" xsi:noNamespaceSchemaLocation="http://sumo.dlr.de/xsd/sumoConfiguration.xsd">

    <input>
        <net-file value="C:\Users\blazi\Desktop\project\simulation_files/riga.net.xml"/>
        <route-files value="C:\Users\blazi\Desktop\project\simulation_files/riga.rou.xml"/>
    </input>

    <output>
        <battery-output value="C:\Users\blazi\Desktop\project\output/electric.xml"/>
        <summary-output value="C:\Users\blazi\Desktop\project\output/summary.xml"/>
        <tripinfo-output value="C:\Users\blazi\Desktop\project\output/tripinfo.xml"/>
        <personinfo-output value="C:\Users\blazi\Desktop\project\output/personinfo.xml"/>
        <vehroute-output value="C:\Users\blazi\Desktop\project\output/vehroute.xml"/>
        <stop-output value="C:\Users\blazi\Desktop\project\output/stopinfo.xml"/>
        <collision-output value="C:\Users\blazi\Desktop\project\output/collision.xml"/>
        <edgedata-output value="C:\Users\blazi\Desktop\project\output/edgeData.xml"/>
        <lanedata-output value="C:\Users\blazi\Desktop\project\output/laneData.xml"/>
        <statistic-output value="C:\Users\blazi\Desktop\project\output/statistic.xml"/>
    </output>

    <time>
        <begin value="0"/>
        <end value="1000"/>
        <step-length value="0.1"/>
    </time>

</sumoConfiguration>
-->

<routes xmlns:xsi="http://www.w3.org/2001/XMLSchema-instance" xsi:noNamespaceSchemaLocation="http://sumo.dlr.de/xsd/routes_file.xsd">
    <vehicle id="39" type="myCar" depart="39.00" arrival="215.40">
        <route edges="-426310649#3 -426310649#2 -426310649#1 -426310648#2 -129814120#8 -129814120#4 -129814120#3 -129814120#2 -129814120#0 -974010950#2 -267196136#11 -267196136#9 -267196136#7 -267196136#5 -267196136#3 -267196136#2 -267196136#1 -267196136#0 1174862800 267196139#0 267196139#1 267196139#2 267196139#3 267196139#5 384817903#0 384817903#2 384817904#0 384817904#1 384817904#2 384817904#3 384817904#4 -384817904#5"/>
    </vehicle>

    <vehicle id="3" type="myCar" depart="3.00" arrival="224.80">
        <route edges="5737373#9 -5768404#8 -5768404#2 -5737373#7 -5737373#6 -5004413#4 -5004413#2 23241671#2 23241671#4 -1346364856#1 -1346364856#0 1354366984#0 -1354366984#0"/>
    </vehicle>

    <vehicle id="160" type="myCar" depart="160.00" arrival="264.80">
        <route edges="50914138#2 50914138#3 50914138#4 50914138#5 50914138#8 50914138#9 50914138#10 50914138#12 50914138#14 8555437#22 8555437#23 8555437#24 8555437#25 8555437#26 8555437#27 1215432783#0 -26458384#5 -26458384#3 -26458384#2 -26458384#1 4587810#0 86383729#0 267118414#0 267118414#1 267118414#2 267118414#3 267118413 267107297 26458170#0 151378390 90460173#0"/>
    </vehicle>

    <vehicle id="24" type="myCar" depart="24.00" arrival="303.80">
        <route edges="203411557#3 210605197#0 -210605197#0 -203411557#3 -203411557#2 -203411557#0 -493890041 -36843446#2 36894048#0 271016284#0 271016284#1 271016284#2 127069788 64798327#0 -266413514#14 -266413514#12 -266413514#11 -266413514#10 -266413514#9 -266413514#8 -266413514#6 -266413514#4 -266413514#3 -266413514#2 -27023996#12 -27023996#9 -27023996#6 -27023996#5 -27023996#4 22878127#0 266413518 266413516#0 266413516#1 22878128 759350393#0 29103606 -169458366 -392273793 -641957964 -36890914 -649745180 -641956029 -36890917 -641956030"/>
    </vehicle>

    <vehicle id="28" type="myCar" depart="28.00" arrival="311.20">
        <route edges="-23076941#2 -23076941#1 -134361656#2 -134361656#0 -134361657 -134361658#6 -134361658#4 -134361658#2 -475860569#2 -323026176#2 -323026176#1 -323026176#0 -1122943777#3 -1122943777#1 -4708998 1122942630 99892079#0 282072286 274825773 274825774 99892052#0 1122943537 -1163675204 -1163675205#2 -1163675205#1 -424331644 -132489381#7 -132489381#5 -132489381#3 -132489381#2 -132489381#1 -132489381#0 -132489382 -274825775#11 -274825775#5 -274825775#4 -274825775#3 -274825775#2 -274825775#1 -833146648#1 -26083721#10 -26083721#9 -26083721#8 -26083721#7 -26083721#6 -26083721#5 -26083721#4 282920363#0 282920363#2 35064833#1 35064833#2 35064833#3 35064833#4 35064833#5 35064833#6 35064833#7"/>
    </vehicle>

    <vehicle id="8" type="myCar" depart="8.00" arrival="315.70">
        <route edges="-327117256#6 -421597978#5 -173052292#1 -192706045#6 -192706045#3 173053074#0 192706043#0 192706043#1 475833816#0 475833816#2 475833816#3 475833816#4 475833816#5 475833816#6 475833816#7 475833816#8 475833816#9 475833816#10 475833816#11 1242495991#0 1242495991#1 94422749#0 94422749#2 94422749#3 94422749#4 94422749#11 94422749#12 94422749#13 94422749#14 789185903#0 789185903#1 374287342#1 487980067#0 430206902#0 430206902#1 158305146"/>
    </vehicle>

    <vehicle id="68" type="myCar" depart="68.00" arrival="321.30">
        <route edges="-129146514#8 -129146514#6 -129146514#5 -129146514#4 -129146514#2 -153130830#13 -153130830#12 -153130830#11 -153130830#10 -153130830#8 -153130830#7 -153130830#5 -153130830#3 -153130830#2 -153130830#1 -153130830#0 -4756567#6 -4756567#5 -4756567#4 -4756567#2 -4756567#1 -1233491428 -1233491427 -22901076#3 1115336868#0 1115336868#1 1115336868#2 1115336868#3 1115336868#4 1087346027 481040699#0 -220970637#12 -220970637#11 -220970637#10 -220970637#8 -220970637#7 -220970637#6 -220970637#5 -220970637#4 -220970637#3 -220970637#1 -220970637#0 -827594876#3 -827594876#2 -827594876#0 -1253372216 -12994956#2 -1256622638#4 -1256622638#1 -1256622637 -38749141#6 -38749141#4 -38749141#2 38690333#0 38690333#2"/>
    </vehicle>

    <vehicle id="161" type="myCar" depart="161.00" arrival="327.00">
        <route edges="4498161#1 4498161#3 4498161#4 4498161#5 4498161#6 4498161#8 -202526654#3 -202526654#1 -4706051#2 1254672907#2 1254672907#3 1254672907#4 1254672907#5 1254672907#6 1254672907#7 26586627#0 1219477077#0 1219477077#1 1219477077#2 1219477077#3 37850957#0 37850957#3 37850957#5 37850957#7 37850957#8 37850957#9 37850957#10 37850957#11 37850957#12 37850957#13 37850957#14 37850957#15 37850957#18 37850957#19 37850957#20 37850957#21 1329359203#0 4644421#1 4644421#2 4644421#4 4644421#8 4644421#9 1329359202#2 545902241#1 545902242#4 545902242#6"/>
    </vehicle>

    <vehicle id="176" type="myCar" depart="176.00" arrival="333.50">
        <route edges="791299201#2 791299201#3 791299201#5 791299201#8 791299201#10 791299201#11 54563392#0 54563392#2 54563392#4 4858310#3 4858310#5 4858310#6 4858310#8 4858310#9 4858310#10 4858310#11 4858310#12 160160383#0 160160383#1 160160383#2 -160160383#2"/>
    </vehicle>

    <vehicle id="137" type="myCar" depart="137.00" arrival="343.10">
        <route edges="-174569582#11 -174569582#10 -174569582#8 -174569582#7 -174569582#6 -174569582#5 -174569582#4 -174569582#2 102137716 -183627738#14 -183627738#13 -183627738#12 -183627738#10 -183627738#9 -183627738#7 -183627738#6 -183627738#4 -183627738#2 -183627738#1 -1186038819#13 -1186038819#12 -1186038819#11 -1186038819#10 -1186038819#9 -1186038819#7 -1186038819#5 -1186038819#2 -1186038820 -124713385#17 -124713385#16 -124713385#15 -124713385#14 -124713385#13 -124713385#12 -124713385#11 -124713385#10 -124713385#9 -124713385#7 -124713385#6 -124713385#4 -124713385#2 -124713385#0 -54450295 -54563393#4 -54563393#3 -54563393#2 -54563393#1 -54450296#19 -54450296#18 -54450296#16 -54450296#15 -160160384#12 -160160384#8 -160160384#5 -160160384#3"/>
    </vehicle>

    <vehicle id="136" type="myCar" depart="136.00" arrival="361.90">
        <route edges="23163175#4 810173395#1 810173395#2 810173395#3 280227993#0 280227993#2 280227993#3 280227993#4 280227993#5 280227993#6 280227993#8 280227993#9 1222731970#0 1222731970#1 1222731970#2 1222731970#3 1222731970#4 810173396#0 810173396#1 810173396#3 810173396#5 810173396#6 810173396#7 810173396#8 822332971#0 822332971#1 822332971#2 25788882 23163207#0 23163207#1 23146547#0 23146547#1 1117622080#0 159090919#0 159090919#2 159090919#3 794753773#0"/>
    </vehicle>

    <vehicle id="73" type="myCar" depart="73.00" arrival="371.90">
        <route edges="129146494#3 129146494#4 129146494#5 25698310#0 25698310#1 25698310#2 25698310#3 129146495#0 129146495#2 129146495#3 128478850#0 128478850#2 128478850#3 128478850#4 4372135#0 1090990445#0 1090990445#1 1090990445#2 1143668250#0 1143668250#2 1143668250#3 1143668250#5 1143668250#6 1112008781#0 1112008781#1 1112008781#2 1112008781#3 175711905#0 175711905#1 43948370#0 43948370#3 43948370#4 43948370#5 43948370#6 43948370#9 43948370#10 513341630 91758799 513341635#0 513341633 35332892#0 35332892#1 35332798#0"/>
    </vehicle>

    <vehicle id="133" type="myCar" depart="133.00" arrival="377.00">
        <route edges="172131004 476293108#0 -476293108#1 -172131004 -36888589 22464689 117062758#0 117062758#1 117062758#2 265039907 272490076 511790849 22900993#0 476905252 353625602#0 353625602#1 117062761 174144434#0 172131005#0 172131005#2 172131005#3 172131005#4 172131005#5 172131005#7 1175584518#0 129146513#0 1233490217#0 1233490217#1 945443754 1115336863 1357886918#0 1357886913#0 1233489806#0 1233489806#2 945443747#1"/>
    </vehicle>

    <vehicle id="92" type="myCar" depart="92.00" arrival="402.40">
        <route edges="-7979633#1 395750063 142109133#0 -395750062 395750062 395750065#0 -395750063 -395750064#1 -80497437#3 -80497437#0 -441292517 -80497429 -80497422 -891050275 -973996491 -1289093963#1 -441292140#3 -441292140#2 -441292140#1 -441292140#0 -441291025 -86484368#1 -441291438#1 -172113409 -1354999520 -69682330#3 -69682330#2 -132397537#6 -132397537#3 -132397537#2 -132397537#1 -132397537#0 -39896065#4 -39896065#2 -39896065#1 -39896065#0 -426310649#3 -426310649#2 -426310649#1 -426310648#2 -129814120#8 -129814120#4 -129814120#3 -129814120#2 -129814120#0 -974010950#2 -267196136#11 -267196136#9 -267196136#7 -267196136#5 -267196136#3 -267196136#2 -267196136#1 -267196136#0 -39896064#6 -39896064#4 -39896064#3 -39896064#2 -39896064#1 -39896064#0 -384817906#1 -384817906#0 -53448126#1 -53448126#0 53448134#1 53448134#2 53448134#3 -53448134#3 -53448134#2"/>
    </vehicle>

    <vehicle id="301" type="myCar" depart="301.00" arrival="427.50">
        <route edges="114553685#5 114553685#7 114553685#8 114553685#9 198469364 629038015 144029903 629038017 629038018 144029670 144029671#0 1013411398 1013411399 161082140 1013411400 136049119 1013411401 129941217#0 -27681584#2 5072882#0 5072882#2 5072882#5 5072882#6 5072882#7 5072882#8 5072882#9 5072882#11 5072882#13 5072882#14 5072882#15 281795195 38330910#0"/>
    </vehicle>

    <vehicle id="204" type="myCar" depart="204.00" arrival="446.20">
        <route edges="20007871#7 -39300868#1 -39300868#0 -5072874#1 -535245145#11 4853522#0 535245139#0 535245139#2 535245139#4 535245139#5 535245139#6 535245139#8 535245139#10 535245139#11 535245139#12 535245139#15 535245139#16 535245139#17 535245139#18 535245139#20 535245139#21 535245139#22 535245139#23 535245139#24 535245139#25 535245139#26 535245139#27 535245139#28 535245139#29 521375863#14 521375863#16 521375863#19 521375863#21 521375863#22 -521375863#22"/>
    </vehicle>

    <vehicle id="48" type="myCar" depart="48.00" arrival="458.60">
        <route edges="983720635#0 173164061#6 797933733#0 797933733#2 408260746 797933734#0 797933734#1 797933734#2 797933734#3 797933735#0 205475538#0 205475538#2 205475538#3 797933736#0 797933736#1 797933736#2 1011745860 1011745866#0 1011745866#1 1011745865 797933737#0 1011745863 797933738 105067566#0 105067566#1 173164062#0 173164062#1 -1224425781 -202309894#10 -202309894#9 -202309894#8 -202309894#7 -202309894#6 -202309894#3 -202309894#0 -202309893 72107663 -202315114#2 -202315114#0 -202315113 -184249677#1 -184249677#0 -4411823#3 -4411823#2 73077807#0 73077807#2 73077807#3 73077807#4 73077807#5 1092748965#0 4371272#0 4371272#1 4371272#5 512386410#0 512386410#1 512386410#2 512386410#5 512386410#7 1369654750#1 512386409#0 213566679 65175300 528320824 528320826 528320822 528320819 274779817 1128453347 1128453346 151413832#0 151413832#2 4370618 151413821 151413826#0 151413826#1 96760926 282866119 138025242#0 138025242#1 138025242#2 512382823 949514593 -96760911#2 -144147757 -42733938 137984548#0 126028363#0 126028363#1 1217505490#0 1286572566#0 1286572572#6 1286572572#1 1286572572#2 1286572564"/>
    </vehicle>

    <vehicle id="254" type="myCar" depart="254.00" arrival="460.60">
        <route edges="-1219477077#0 -26586627#1 26586627#0 1219477077#0 1219477077#1 1219477077#2 1219477077#3 37850957#0 37850957#3 37850957#5 37850957#7 37850957#8 37850957#9 37850957#10 37850957#11 37850957#12 37850957#13 37850957#14 37850957#15 37850957#18 37850957#19 37850957#20 37850957#21 37850957#23 37850957#24 37850957#25 37850957#26 37850957#28 37850957#29 37850957#30 37850957#31 37850957#32 37850957#34 37850957#35 37850957#37 37850957#39 657829506#0 91761072#1 91761072#2 -4994927#7 -4994927#5 -4994927#4 -4994927#2 -4994927#1 -513341641#8 -513341641#7 -513341641#6 -513341641#3 -513341641#1 -38291779#1 -4388679 -91766337 -37647856 -123267974 -210220067#12 -210220067#11 -210220067#10 -210220067#9 -210220067#8 -210220067#7 -210220067#6 -210220067#4 -210220067#3 -210220067#2 -210220067#1 -210220067#0 -210220240 -1001582022#6 -1001582022#5 -1001582022#2 -208640148 -4377398#1 37647858#0 39068142 62075868#0 -72408254#4 -72408254#2"/>
    </vehicle>

    <vehicle id="71" type="myCar" depart="71.00" arrival="465.40">
        <route edges="-42687406#1 -42687406#0 38504747#0 242406281#1 4375038 881138575 39947316#0 889208756#0 889208757 4886305 1282596338#0 1282596338#1 1282596338#2 1282596338#3 512385654 1130887419 875760750 875760747 875760748 875761324 1362685263 875761465 42423493#0 42423495#0 1041898729 1231443103#0 37647846#0 1252310727 1252310726 875460791 875460790 875457580 875457579#0 37647847#0 1276047824#0 37647845#0 875496926#0 42424263#0 875496929 875508350 875508340#0 42455115#0 875530197 875530194#0 42455116#0 1253949470 875579073 875579072 875579058 875579055#0 4367293#0 4367293#3 4368380 875753861#0 141469622#0 875757324 875757325#0 37647857#0 291476372#0 291476372#1 712138715#0 266233220 712138714 41596619 37688921 37100852 310783315#0-AddedOnRampEdge 310783315#0 310783315#1 310783315#2 799568766#0 1224958208#0 1224958208#1 121782502 1171237521#0 1171237521#1 43945942 43945941 43945940#0 43945940#1 43945940#2 522866708"/>
    </vehicle>

    <vehicle id="91" type="myCar" depart="91.00" arrival="466.90">
        <route edges="93590062#9 93590062#11 93590062#12 93590062#13 -5010013#5 -5010013#3 -5010013#2 35572767#4 35572767#6 35572767#7 35572767#8 1126033746#0 974288553#0 1111749744#0 1111749744#2 1111749745#1 1111749745#2 5009977#0 5009977#2 5009977#4 -168436895#4 -168436895#2 24607130#0 24607130#3 24607130#5 24607130#6 24607130#8 24607130#10 24607129#0 24607129#2 24607129#3 24607129#4 24607129#5 1126188033#0 1126188032 797250441#1 797250441#2 1126182936#0 1126182936#3 1126042569 -1126042570#2 -1126042570#1 -1126042571#2 -1126042571#1 -1126042571#0 -1257114585#1 -1257114585#0 1257114586#0 -528717308#6 -528717308#5 -528717308#4 -528717308#3 -528717308#2 -528717308#0 4389901#0 1025602269#0 1025602269#1 1025602269#3 42460878#0 1126047107 1257114790#0 1126047106#0 1126047106#2 94422756#0 94422756#1 1126047108 -475860569#2 -323026176#2 -323026176#1 -323026176#0 -1122943777#3 -1122943777#1 -4708998 1122942630 99892079#0 282072286 274825773 274825774 99892052#0 1122943537 -1163675204 -1163675205#2 -1163675205#1 -424331644 -132489381#7 -132489381#5 -132489381#3 -132489381#2 -132489381#1 -132489381#0 -132489382 -145656967#19"/>
    </vehicle>

    <vehicle id="64" type="myCar" depart="64.00" arrival="480.30">
        <route edges="535245139#4 535245139#5 535245139#6 535245139#8 535245139#10 535245139#11 535245139#12 535245139#15 535245139#16 535245139#17 -535245139#17 -535245139#16 -535245139#15 -535245139#12 -535245139#11 -535245139#10 -535245139#9 -535245139#7 -535245139#5 -535245139#4 -535245139#2 -535245139#0 -4853522#2 535245145#10 -653726587#7 -653726587#5 -653726587#4 -653726587#3 -653726587#2 -653726587#1 -653726587#0 -37850958#2 37850957#0 37850957#3 37850957#5 37850957#7 37850957#8 37850957#9 37850957#10 37850957#11 37850957#12 37850957#13 37850957#14 37850957#15 37850957#18 37850957#19 37850957#20 37850957#21 37850957#23 37850957#24 37850957#25 37850957#26 37850957#28 37850957#29 37850957#30 37850957#31 37850957#32 37850957#34 37850957#35 37850957#37 37850957#39 657829506#0 91761072#1 91761072#2 37770951#0 37770951#2 37770951#5 37770951#6 37770951#7 37770951#8 37770951#9 43962471#0 43962471#3 1370844293#0 1327586787#0 43962472#0 43962472#4 43962472#6 43962472#10 1327586788 1327586789 36823082#0 36823082#1 4421912#0 1120359527#0 1120359527#2 1120359527#3 1120359527#4 1120359527#5 1120359527#6 1120359527#7 1120359527#8 1120359527#10 1120359527#11 1120359527#12 1019395057#0 991776821#0 991776821#1 991776821#2 991776821#3 1283287666 989736793#0 1283287665 1283287667 4421911#0 479850150#0 479850150#4"/>
    </vehicle>

    <vehicle id="198" type="myCar" depart="198.00" arrival="484.50">
        <route edges="-896640823#4 -896640823#1 218878781#2 218878781#3 218878781#4 218878781#5 825955793#0 825955793#2 825955793#3 825955793#4 429166135#2 240657399#1 240657399#2 240657399#3 240657399#4 1288653555#1 1288653555#2 1288653555#3 1009738215#0 1009738215#1 1009738214 25610033#0 25610033#1 28539057 28743758#0 240657404#0 240657404#1 240657407 45278101 116978515 116980863 265039906 22901082#0 219912708#0 219912708#1 219912708#2 219912708#3 219912722 172060619#0 172060619#1 172060619#2 172060619#3 22901083#0 22901083#1 152598682"/>
    </vehicle>

    <vehicle id="59" type="myCar" depart="59.00" arrival="500.50">
        <route edges="169620080#7 -35064833#8 -35064833#7 -35064833#6 -35064833#5 -35064833#4 -35064833#3 -35064833#2 -35064833#1 -35064833#0 -282920363#1 -277272499#5 -277272499#3 -277272499#2 759939027 26083724 26094153#0 26094153#2 -364132547#0 -42880294#4 -42880294#3 -42880294#2 129146506#7 129146506#8 789185894#0 135928553#0 70142535#0 70142535#2 70142535#3 70142537 129982855#0 129982855#2 1206355423 213579976#0 213579976#1 -213579976#1 -213579976#0"/>
    </vehicle>

    <vehicle id="57" type="myCar" depart="57.00" arrival="501.30">
        <route edges="670071002#0 755628503 1077409068 1077409067 1077409066 61919127 521576127 755628497 521576131 521576130 1077409065 521576129 61919130#0 -256782365 256782366#0 256782366#1 -127069788 -271016284#2 -271016284#1 -271016284#0 -36894048#2 -206991726#2 -797099258#0 -206991725#2 -1352903641 -206991724 -36890915#2 -225052887 -36823082#0 -1327586789 -1327586788 -43962472#12 -43962472#9 -43962472#5 -43962472#3 -1327586787#2 -1370844293#1 -43962471#4 -43962471#2 513341643#0 513341643#2 513341642#0 513341642#2 240331264#0 240331264#1 240331264#2 240331264#3 240331264#4 240331264#5 240331264#6 240331264#7 240331264#8 240331264#9 240331264#10 240331264#11 240331264#12 240331264#14 240331264#16 677878933#0 646840029 646840025 67253204 256535700#0 -647820143#1 -163763755#15 -163763755#12 -163763755#8 -163763755#5 -163763755#4 -163763755#1 521375863#14 521375863#16 521375863#19"/>
    </vehicle>

    <vehicle id="267" type="myCar" depart="267.00" arrival="518.70">
        <route edges="26747992#0 -26747992#4 50832368#2 50832368#4 50832368#5 50832368#7 50832368#8 50832368#9 50832368#10 50832368#11 26458067#0 26458067#4 26458067#5 26458067#6 26458067#7 26458067#8 86484368#0 441291025 441292140#0 441292140#1 441292140#2 441292140#3 1289093963#0 973996491 891050275 80497422 80497429 441292517 80497437#0 80497437#2 395750064#0 395750063 142109133#0 -395750062 156603597#1 156603597#2 156603595 39896066 905412428#0 905412428#2 905412426 1265138783#0 1265138783#1 1265138782#0 1265138782#1 39896067#0 39896067#1 39896067#3"/>
    </vehicle>

    <vehicle id="394" type="myCar" depart="394.00" arrival="522.70">
        <route edges="1323774545#3 -36918715#3 -36918715#1 36918713#0 36835468 299981832#0 299981831 124436335#0 74131287#1 74131287#4 74131287#5 105540867#0 105540867#1 105540867#3 105540858#1 105540858#2 -105540858#2 -105540858#1 -105540867#5 -105540867#2 -105540867#0 -74131287#5"/>
    </vehicle>

    <vehicle id="169" type="myCar" depart="169.00" arrival="524.10">
        <route edges="103917888#4 -1360294347#0 -1360294360#2 34884334#0 34884334#3 34884334#4 34884334#6 34884334#7 34884334#8 915607430#5 915607430#6 915607430#7 915607430#8 -1231443103#2 -1041898729 -42423495#2 -42423493#2 -875761465 -1362685263 -875761324 -875760748 -875760747 -875760750 -875760749 880256759 4370053 880256760#0 880256760#1 880256760#2 880256760#3 412667281#0 412667281#1 -198640604#1 -215318784#3 -215318784#2 -1221701432#1 -160384717 -512384865 -830001471 -1333673079 -4372091#1 4372093#0 36834409 1240742175 233451158 1117783263 233451157 233451159 233451160#0 233451161 1308120121#0 73077807#0 73077807#2 73077807#3 73077807#4 73077807#5 1092748965#0 4371272#0 4763175#0 4372094#0 52155247#0 52155247#2 52155247#3 -4849967#2 -4849967#1"/>
    </vehicle>

    <vehicle id="371" type="myCar" depart="371.00" arrival="530.70">
        <route edges="-50220085#1 50220085#0 50220085#4 50220085#5 50220085#6 50220085#7 50220085#8 50220085#11 50220085#12 50220085#15 50220085#16 50220085#18 50220085#19 50220085#21 50220085#23 50220085#24 50220085#26 50220085#27 50220085#28 50220085#29 390213910#0 390213910#1 -86484368#1 -26458067#9 -26458067#7 -26458067#6 -26458067#5 -26458067#4 -26458067#1 -19897978#3 -19897978#1 -19897978#0 -26747996#19 26747997#0"/>
    </vehicle>

    <vehicle id="110" type="myCar" depart="110.00" arrival="532.60">
        <route edges="875579072 875579058 875579055#0 4367293#0 4367293#3 -4367293#3 -4367293#2 -875579055#2 -875579058 -875579072 -875579073 -1253949470 -42455116#3 -875530194#3 -875530197 -42455115#2 -875508340#2 -875508350 -875496929 -42424263#1 -875496926#1 -37647845#3 -1276047824#3 -37647847#2 -875457579#2 -875457580 -875460790 -875460791 -1252310725#1 -1252310727 -37647846#2 -1231443103#2 -1041898729 -42423495#2 -42423493#2 -875761465 -1362685263 -875761324 -875760748 -875760747 -875760750 -875760749 880256759 4370053 880256760#0 880256760#1 880256760#2 880256760#3 412667281#0 412667281#1 4375039#0 512385570 11016787 4370179 166211362#0 1260542459#0 1260542459#2 1260542459#4 1260542460#0 1067548238#0 1067548238#1 1067548238#2 1067548238#3 1067548238#4 1213265854#0 1213265855 -945724538#2 -945724538#1 -1233489803 -1178108492#2 945724539#0 151630235#0 151676218#0 151676218#1"/>
    </vehicle>

    <vehicle id="127" type="myCar" depart="127.00" arrival="537.30">
        <route edges="990945169 -136473932#1 297335147#3 1306484256#0 1306484256#1 135355975#0 135355975#2 135355975#4 135355975#6 494418276#0 494418275#0 130001848#0 130001848#1 130001848#3 141272700#0 141272700#2 141272700#3 141272700#4 141272700#5 141272700#6 141272700#8 141272700#9 -131827878#7 -131827878#4 -131827878#3 -131827878#1 -131827878#0 -1076682852#0 -1076682853#2 -1076682853#1 -23075443 -770993820#11 -770993820#10 -770993820#9 -770993820#7 -770993820#4 -770993820#2 23600953 23600956 1085588307 141221917#0 141221917#2 141221917#3 141221917#5 1085588308#0 1085588309 1085588320#0 1085588322#0 1085588323#0 1085588323#3 810173399 1085588319 973932583#1 364472502#0 364472502#3 364472501#0 -435507521#8 -435507521#6 -435507521#5 435510703#0 983030773#0"/>
    </vehicle>

    <vehicle id="98" type="myCar" depart="98.00" arrival="537.40">
        <route edges="131759717#0 131759717#1 86383399#0 86383399#2 86383399#4 86383399#6 86383399#7 -5768394#14 -5768394#12 -5768394#11 -5768394#10 -5768394#8 -5768394#7 -5768394#6 -5768394#3 -5768394#1 -86383731#4 -86383731#3 -86383731#2 -86383731#1 -441293054#10 -441293054#6 -441293054#5 -441293054#4 -441293054#3 -441293054#1 -441293054#0 -142109132#1 -80497437#3 -80497437#0 -441292517 -80497429 -80497422 -891050275 -973996491 -1289093963#1 -441292140#3 -441292140#2 -441292140#1 -441292140#0 -441291025 -86484368#1 -441291438#1 -172113409 -1354999520 -69682330#3 -69682330#2 37713616#0 1117665592 1117665591 1117665590 23016374 52347620#1 197637379#0 -819355479 -86484366 -259455866#1 -259455866#0 -304968646 -117031637#6 -117031637#4 -117031637#3 -117031637#2 -117031637#1 -117031637#0 -44278136#4 -4676920#5 -4676920#4 -4676920#3 -4676920#2 -4676920#1 96721739#0 96721740#0 96721740#1 44278138#1 1119706597#0 1119706597#2 1119706537#0 1119706537#1 1119706538#0 1119706538#2 1222735177#2 -1222735177#4"/>
    </vehicle>

    <vehicle id="310" type="myCar" depart="310.00" arrival="549.70">
        <route edges="-38705332#16 -38705332#14 -38705332#12 -38705332#9 -38705332#7 -38705332#6 -38705332#5 -38705332#4 -38705332#2 -38705332#1 -521375863#5 -521375863#4 -521375863#2 -521375863#0 -133439907#2 -4744680#10 -4744680#8 -4744680#7 -4744680#6 -4744680#4 -4744680#1 -653726587#13 -653726587#11 -653726587#10 -653726587#9 -653726587#8 -535245145#11 -535245145#9 -535245145#7 -535245145#6 -535245145#5 -535245145#4 -535245145#3 -535245145#2 -535245145#1 -535245145#0 -4994928#2 -4994928#1 -4994928#0 -163763750#40 -163763750#38 -163763750#37 -163763750#35 -163763750#34 -163763750#33 -163763750#30 -163763750#29 -163763750#28 -163763750#27 -163763750#26 -163763750#25 -163763750#24 -163763750#23"/>
    </vehicle>

    <vehicle id="377" type="myCar" depart="377.00" arrival="550.50">
        <route edges="946158271#0 946158271#1 129146498#1 490446758 141221934 282920366#0 282920366#3 282920366#4 282920366#6 129146500#0 1095321008#1 1095321007#0 135355978 130102732#0 130001853 38485710#0 1360638906 1360638907#0 482422332 101823703#0 789241797 23204987#0 23204987#3"/>
    </vehicle>

    <vehicle id="49" type="myCar" depart="49.00" arrival="555.80">
        <route edges="88373645#0 -26999809#3 -1119706538#1 -1119706537#1 -1119706537#0 -1119706597#2 -1119706597#1 808198452#0 -86484367#13 -86484367#10 -86484367#6 -86484367#4 -86484367#2 -86484367#1 -86484367#0 -162287012#0 -919347073#1 -919347073#0 -86484365#5 -86484365#2 1117417375 522866747#0 522866747#1 522866711 522866730#0 522866730#1 522866730#2 522866730#4 522866730#5 522866730#6 685797315 685797314#0 685797314#3 685797314#4 685797314#5 685797314#6 685797314#7 685797314#8 459183848#0 459183848#1 86484369#0 86484369#3 86484369#4 86484369#5 5004679#0 -129814120#0 79482882#0 -96425159#5 -96425159#4 -96425159#3 -96425159#2 -96425159#1 -96425159#0 -1342400814#6 -1342400814#5 -1342400814#4 -1342400814#3 -1342400814#2 -1342400814#1 -1342400814#0 348346514#0 348346513#0 4377632 177859342 177859378 279722492#0 279722492#1 177859348#1 348346516#5 348346516#7 348346516#8 734913021#0 734913021#2 734913021#3 734913021#4 734913021#5 734913021#6 734913021#8 734913021#11 734913021#12 50914144#0 50914144#2 50914144#3 50914144#4 50914144#5 50914144#6 -50831833#7 -50831833#4 -50831833#3 -50831833#2 -50831833#1 -1318436898#10 -1318436898#6 -1318436898#4 -1318436898#3 -1318436898#1 -1318436898#0 -1318436961#0 -63990573#1 -63990573#0 -17442542#1 -17442542#0 -17442540#6 -17442540#5 -17442540#4 -17442540#2 -17442540#1 245451145#12 245451145#13 36965022#0 36965022#2 -36965024#3 -36965024#1 159354628#0 159354628#2 5086307#0"/>
    </vehicle>

    <vehicle id="165" type="myCar" depart="165.00" arrival="560.20">
        <route edges="4498161#0 4498161#1 4498161#3 4498161#4 4498161#5 4498161#6 4498161#8 4498161#10 4498161#11 4498161#13 4498161#14 4498161#15 4498161#16 -1090212279 -1307731356 -151401305 -151401304 -126523492#1 -124436323 36894047#0 301482045#0 124436322 1282985733 309089282#0 309089282#1 309089282#2 49431948#0 73872592 512383065 512383064 123154509#0 4392903#0 136553989#0 136553989#1 136553989#2 136553989#3 136553989#4 142214925#0 1189442734 879468452 4453254 198469366#0 198469366#1 198469366#2 198469366#6 198469366#7 198469366#8 1300161373 833873851#0 833873851#2 833873851#4 833873851#6 833873851#7 -4377401#8 -4377401#5 -4377401#4"/>
    </vehicle>

    <vehicle id="197" type="myCar" depart="197.00" arrival="560.40">
        <route edges="-100290026#1 72407006#1 72407006#4 1059374636#7 65240204#14 175711904#1 175711904#3 40446035#0 680621590#0 680621590#1 37684012#0 37684012#4 37684012#5 37684012#7 37684012#8 37684012#9 37684012#11 648802686 141330992 648802693 1331119643#0 -240858120#1 -1281455726#4 -1281455726#3 -1281455726#2 -1281455726#1 -1281455726#0 1281455727#0 -1355648111#1 -1355648111#0 -4375199#2 -4375199#1 -4375199#0 -1347332438#2 4421912#0 1120359527#0 1120359527#2 1120359527#3 1120359527#4 1120359527#5 1120359527#6 1120359527#7 1120359527#8 1120359527#10 1120359527#11 1120359527#12 1120359527#13 -1019395059#1 -43992446#2 -43992446#1 22888875#0 22888875#3 22888875#5 -1105364754#6 -1105364754#4 -1105364754#3 -1105364754#2 -1105364754#1 -4539840#6 -4539840#4 -4539840#3 -4539840#2"/>
    </vehicle>

    <vehicle id="295" type="myCar" depart="295.00" arrival="568.00">
        <route edges="495435095#0 495435095#2 495435095#4 42455514#0 42455514#2 4844605#0 4844605#3 4844605#4 -36834405#4 -36834405#2 -36834405#1 -4376384#2 4376447#2 5086172#0 5086172#3 166625242#0 166625242#2 166625242#3 166625242#4 166625242#5 722951106#0 712138717#2 712138717#4 1359877863#0 217125869#0 217125869#1 217125869#2 217125869#3 4370011#0 4370011#2 4370011#3 1359877836#0 1359877836#2 4370484#0 4370484#2 4370484#3 4370484#4 4370484#5 4370484#6 421043916#0 421043916#1 23909868#0 -23909868#1"/>
    </vehicle>

    <vehicle id="216" type="myCar" depart="216.00" arrival="568.30">